[Molden Format]
[Atoms] (Angs)
N      1     7     -0.1531200000E+01    0.9685000000E+00    0.3862100000E+00
C      2     6     -0.6990000000E+00   -0.2417000000E+00    0.4182000000E+00
H      3     1     -0.7087000000E+00   -0.6627000000E+00    0.1423500000E+01
C      4     6     -0.1254500000E+01   -0.1268900000E+01   -0.5703000000E+00
C      5     6      0.7151000000E+00    0.1108000000E+00    0.3480000000E-01
O      6     8      0.9398100000E+00    0.1130100000E+01   -0.5739000000E+00
O      7     8      0.1725000000E+01   -0.7076000000E+00    0.3694000000E+00
H      8     1     -0.1538500000E+01    0.1378000000E+01   -0.5360000000E+00
H      9     1     -0.2469100000E+01    0.7709000000E+00    0.7015000000E+00
H     10     1     -0.1244900000E+01   -0.8478000000E+00   -0.1575600000E+01
H     11     1     -0.6371000000E+00   -0.2166800000E+01   -0.5465100000E+00
H     12     1     -0.2277400000E+01   -0.1523800000E+01   -0.2930100000E+00
H     13     1      0.2614600000E+01   -0.4392100000E+00    0.1017000000E+00
[5D]
[7F]
[GTO]
   1
s       5
     1712.84158530       -1.03375855
      257.64812677       -1.86207408
       58.45824585       -2.72904019
       16.19836791       -2.69567345
        5.00526008       -1.06409144
s       1
        0.58731857        0.47815135
s       1
        0.18764592        0.20319567
p       3
       13.57147023       -2.18502435
        2.92573729       -1.74669990
        0.79927751       -0.81146505
p       1
        0.21954348        0.21421051
d       1
        1.00000000        2.85082188

   2
s       5
     1238.40169380        0.82089567
      186.29004992        1.47664499
       42.25117635        2.15261241
       11.67655793        2.10817225
        3.59305065        0.82909999
s       1
        0.40245147        0.36011834
s       1
        0.13090183        0.15510271
p       3
        9.46809706        1.34676452
        2.01035451        1.06780709
        0.54771005        0.51087357
p       1
        0.15268614        0.13604720
d       1
        0.80000000        1.92920137

   3
s       3
       13.01070100        0.16349038
        1.96225720        0.27735155
        0.44453796        0.31575015
s       1
        0.12194962        0.14707723
p       1
        0.80000000        1.07845635

   4
s       5
     1238.40169380        0.82089567
      186.29004992        1.47664499
       42.25117635        2.15261241
       11.67655793        2.10817225
        3.59305065        0.82909999
s       1
        0.40245147        0.36011834
s       1
        0.13090183        0.15510271
p       3
        9.46809706        1.34676452
        2.01035451        1.06780709
        0.54771005        0.51087357
p       1
        0.15268614        0.13604720
d       1
        0.80000000        1.92920137

   5
s       5
     1238.40169380        0.82089567
      186.29004992        1.47664499
       42.25117635        2.15261241
       11.67655793        2.10817225
        3.59305065        0.82909999
s       1
        0.40245147        0.36011834
s       1
        0.13090183        0.15510271
p       3
        9.46809706        1.34676452
        2.01035451        1.06780709
        0.54771005        0.51087357
p       1
        0.15268614        0.13604720
d       1
        0.80000000        1.92920137

   6
s       5
     2266.17677850       -1.26158597
      340.87010191       -2.27485004
       77.36313517       -3.34796233
       21.47964494       -3.32999805
        6.65894331       -1.32038283
s       1
        0.80975976        0.60838323
s       1
        0.25530772        0.25598119
p       3
       17.72150432        3.24601076
        3.86355054        2.57349592
        1.04809209        1.12083729
p       1
        0.27641544        0.28568864
d       1
        1.20000000        3.92226799

   7
s       5
     2266.17677850       -1.26158597
      340.87010191       -2.27485004
       77.36313517       -3.34796233
       21.47964494       -3.32999805
        6.65894331       -1.32038283
s       1
        0.80975976        0.60838323
s       1
        0.25530772        0.25598119
p       3
       17.72150432        3.24601076
        3.86355054        2.57349592
        1.04809209        1.12083729
p       1
        0.27641544        0.28568864
d       1
        1.20000000        3.92226799

   8
s       3
       13.01070100        0.16349038
        1.96225720        0.27735155
        0.44453796        0.31575015
s       1
        0.12194962        0.14707723
p       1
        0.80000000        1.07845635

   9
s       3
       13.01070100        0.16349038
        1.96225720        0.27735155
        0.44453796        0.31575015
s       1
        0.12194962        0.14707723
p       1
        0.80000000        1.07845635

  10
s       3
       13.01070100        0.16349038
        1.96225720        0.27735155
        0.44453796        0.31575015
s       1
        0.12194962        0.14707723
p       1
        0.80000000        1.07845635

  11
s       3
       13.01070100        0.16349038
        1.96225720        0.27735155
        0.44453796        0.31575015
s       1
        0.12194962        0.14707723
p       1
        0.80000000        1.07845635

  12
s       3
       13.01070100        0.16349038
        1.96225720        0.27735155
        0.44453796        0.31575015
s       1
        0.12194962        0.14707723
p       1
        0.80000000        1.07845635

  13
s       3
       13.01070100        0.16349038
        1.96225720        0.27735155
        0.44453796        0.31575015
s       1
        0.12194962        0.14707723
p       1
        0.80000000        1.07845635

[MO]
 Sym   = 1A
 Ene   =     -19.255851
 Spin  = ALPHA+BETA
 Occup =  2.0000
    1   0.1956111E-03
    2   0.5099394E-03
    3   0.5092549E-02
    4  -0.5657635E-03
    5   0.3060105E-03
    6  -0.7860189E-04
    7  -0.4045281E-03
    8  -0.1832812E-02
    9  -0.1370648E-03
   10  -0.1767480E-04
   11  -0.5210999E-04
   12   0.1239960E-03
   13  -0.5080423E-04
   14   0.5805863E-04
   15   0.5102483E-03
   16   0.4455250E-03
   17  -0.1846178E-01
   18  -0.1464186E-02
   19  -0.1776419E-03
   20  -0.1257227E-03
   21  -0.2841901E-03
   22  -0.3722631E-02
   23   0.6919372E-02
   24  -0.1937984E-03
   25   0.3448451E-04
   26   0.6022112E-04
   27   0.3776346E-03
   28  -0.4250375E-03
   29  -0.4673934E-03
   30   0.7611234E-03
   31   0.3108936E-03
   32   0.8412189E-04
   33  -0.1043692E-03
   34   0.1151807E-03
   35  -0.9595991E-03
   36   0.8214667E-02
   37  -0.4003006E-03
   38   0.2794679E-03
   39   0.0000000E+00
   40   0.1994872E-02
   41   0.4538648E-02
   42   0.1705173E-03
   43  -0.8584836E-04
   44   0.3797282E-04
   45   0.9507135E-04
   46  -0.1067134E-03
   47   0.3408516E-04
   48  -0.2104751E-02
   49   0.2893521E-02
   50  -0.4042372E-02
   51   0.3788042E-02
   52  -0.5502056E-02
   53   0.6515765E-04
   54  -0.1383655E-01
   55   0.9794851E-02
   56  -0.4703365E-02
   57  -0.8744641E-03
   58   0.8310208E-03
   59  -0.5860623E-03
   60  -0.5975784E-03
   61  -0.2116437E-02
   62   0.1150326E-03
   63   0.1340223E-02
   64  -0.4232920E-02
   65  -0.1038637E-02
   66   0.6901780E-03
   67   0.8924702E-03
   68   0.2073329E-02
   69   0.8605197E-03
   70   0.1954271E-03
   71   0.3990357E-04
   72   0.2166343E-03
   73   0.5336391E-04
   74  -0.1992950E-03
   75  -0.2903388E-03
   76   0.1008529E+01
   77   0.3743151E-02
   78   0.6204736E-01
   79  -0.3646911E-02
   80  -0.1564000E-01
   81   0.7327137E-03
   82  -0.1035928E-01
   83  -0.7281086E-02
   84  -0.9263090E-03
   85   0.3260962E-03
   86   0.6202324E-03
   87   0.1935040E-03
   88  -0.1461772E-04
   89  -0.8126000E-03
   90   0.1739255E-03
   91  -0.1919470E-03
   92   0.1819138E-03
   93  -0.6142865E-04
   94  -0.1016887E-04
   95  -0.8891270E-03
   96  -0.7471446E-03
   97  -0.9542337E-04
   98  -0.1290672E-03
   99   0.1471422E-03
  100  -0.5805801E-03
  101  -0.1927359E-02
  102  -0.2205192E-03
  103   0.1463186E-04
  104  -0.6021798E-04
  105  -0.4124856E-03
  106   0.1535343E-02
  107   0.7311567E-04
  108   0.3546119E-04
  109   0.1413790E-03
  110   0.1546926E-03
  111   0.1556439E-03
  112   0.6296271E-04
  113  -0.1018062E-03
  114   0.0000000E+00
  115   0.9147000E-02
  116  -0.1304176E-02
  117  -0.4203724E-02
  118  -0.2409704E-02
  119   0.1558969E-02
 Sym   = 1A
 Ene   =     -19.189515
 Spin  = ALPHA+BETA
 Occup =  2.0000
    1  -0.1231487E-03
    2   0.9121356E-04
    3  -0.3279494E-02
    4   0.1902675E-03
    5   0.3850654E-03
    6  -0.1324397E-03
    7   0.0000000E+00
    8   0.1169385E-02
    9   0.4967352E-03
   10  -0.8961025E-04
   11  -0.4268067E-04
   12   0.0000000E+00
   13   0.1444909E-03
   14   0.9674797E-04
   15   0.1793313E-03
   16   0.4703595E-03
   17  -0.5865127E-02
   18  -0.2441947E-03
   19  -0.3979704E-03
   20   0.2961518E-03
   21  -0.3816374E-02
   22   0.5056364E-02
   23  -0.7345611E-04
   24   0.7486531E-04
   25  -0.1805075E-03
   26  -0.1285464E-03
   27  -0.1182636E-03
   28   0.2211641E-03
   29   0.6776127E-03
   30   0.7765193E-03
   31   0.0000000E+00
   32  -0.4423604E-03
   33  -0.1202254E-04
   34   0.4651586E-04
   35  -0.7397492E-03
   36   0.4476829E-02
   37   0.0000000E+00
   38  -0.1272305E-03
   39   0.8731801E-04
   40   0.2027690E-02
   41   0.4850617E-03
   42   0.1906430E-02
   43   0.1011286E-03
   44   0.1326704E-03
   45   0.0000000E+00
   46   0.3278531E-04
   47   0.4115867E-04
   48  -0.2468332E-02
   49   0.1825053E-02
   50  -0.9424564E-02
   51   0.1621491E-02
   52   0.5849410E-02
   53  -0.3574278E-02
   54  -0.1374952E-02
   55  -0.1290946E-01
   56   0.7963828E-02
   57  -0.2112466E-03
   58  -0.4741333E-03
   59  -0.2383161E-02
   60  -0.2188717E-02
   61   0.9935215E-03
   62   0.1009905E+01
   63   0.6390945E-02
   64   0.6948073E-01
   65   0.3087637E-02
   66   0.1006714E-01
   67  -0.6141657E-02
   68   0.4890750E-03
   69   0.7084897E-03
   70  -0.8199640E-03
   71   0.1431278E-03
   72   0.1053955E-03
   73   0.3229125E-03
   74   0.9943629E-04
   75  -0.4288420E-04
   76  -0.1213778E-03
   77   0.5680430E-03
   78  -0.4124777E-02
   79  -0.2989540E-03
   80  -0.9851870E-03
   81   0.6679850E-03
   82   0.2017746E-02
   83  -0.2831883E-03
   84  -0.2410810E-03
   85   0.3296624E-04
   86   0.9416274E-04
   87  -0.6539233E-04
   88  -0.1552405E-03
   89  -0.1041644E-03
   90   0.1833603E-03
   91   0.8059459E-03
   92   0.1819686E-03
   93  -0.1224889E-03
   94  -0.7075694E-04
   95   0.4839406E-03
   96  -0.2096897E-03
   97  -0.1007094E-03
   98  -0.3687137E-04
   99  -0.5111760E-04
  100  -0.2664153E-03
  101   0.1099431E-02
  102   0.1299563E-04
  103   0.0000000E+00
  104   0.1023132E-03
  105  -0.3597643E-03
  106  -0.1100302E-02
  107  -0.1547723E-03
  108  -0.1173152E-03
  109   0.2662509E-04
  110  -0.1028148E-03
  111  -0.3017846E-04
  112  -0.3245072E-04
  113  -0.5857705E-04
  114  -0.1965392E-03
  115  -0.5327591E-03
  116   0.1069065E-02
  117  -0.2590404E-04
  118   0.3192092E-03
  119  -0.1535143E-03
 Sym   = 1A
 Ene   =     -14.364902
 Spin  = ALPHA+BETA
 Occup =  2.0000
    1   0.1005393E+01
    2  -0.5374411E-02
    3   0.5187093E-01
    4  -0.8165936E-02
    5  -0.1374414E-01
    6  -0.1253135E-01
    7   0.1083040E-01
    8   0.5600522E-02
    9   0.1081478E-01
   10  -0.6043868E-03
   11   0.3512566E-03
   12   0.4558798E-03
   13  -0.6176209E-03
   14  -0.9181424E-03
   15  -0.1819654E-02
   16   0.4734075E-02
   17  -0.1782216E-01
   18  -0.2449987E-02
   19   0.6194972E-02
   20   0.6037810E-03
   21   0.1760793E-02
   22  -0.2677979E-02
   23   0.4534536E-03
   24  -0.1141556E-02
   25  -0.1983502E-03
   26   0.5136478E-03
   27  -0.1417244E-02
   28  -0.1531612E-02
   29  -0.6472233E-03
   30   0.1049654E-02
   31  -0.6378803E-04
   32   0.2347055E-03
   33  -0.8600936E-04
   34  -0.4655852E-03
   35   0.2233523E-02
   36   0.4539152E-02
   37   0.5645942E-03
   38   0.4253755E-03
   39   0.6612153E-03
   40   0.2585986E-02
   41  -0.1479244E-02
   42   0.1581843E-02
   43   0.7401327E-04
   44   0.2981846E-04
   45   0.3716563E-04
   46   0.5804439E-04
   47   0.2087021E-03
   48   0.5471255E-03
   49  -0.1234637E-02
   50   0.4250081E-02
   51   0.1175731E-02
   52   0.2506116E-03
   53  -0.8175656E-03
   54  -0.6378429E-03
   55  -0.6363551E-04
   56  -0.3185221E-03
   57   0.0000000E+00
   58  -0.4242186E-04
   59   0.7149317E-04
   60   0.2165628E-03
   61  -0.7494992E-04
   62  -0.2408646E-03
   63  -0.2954339E-03
   64  -0.1626592E-02
   65   0.6696009E-03
   66  -0.2440368E-03
   67  -0.3370536E-03
   68   0.9763904E-03
   69   0.1608356E-03
   70  -0.6556839E-03
   71  -0.1212414E-04
   72   0.5313805E-04
   73   0.9435428E-04
   74   0.4425353E-04
   75  -0.9592555E-04
   76   0.2289605E-03
   77   0.7886519E-03
   78  -0.3166762E-03
   79  -0.4181041E-03
   80   0.7084207E-04
   81   0.8094006E-04
   82   0.4778754E-03
   83  -0.1002238E-03
   84   0.1042253E-03
   85   0.3299551E-04
   86   0.2293847E-04
   87  -0.4216441E-04
   88  -0.3647166E-04
   89   0.3541816E-04
   90   0.1222322E-01
   91  -0.3241644E-02
   92  -0.6449106E-04
   93  -0.1062879E-02
   94   0.5089222E-02
   95   0.1200622E-01
   96  -0.3138877E-02
   97   0.4691647E-02
   98   0.2112009E-02
   99  -0.1109254E-02
  100   0.6698580E-03
  101  -0.3407347E-04
  102  -0.1582088E-04
  103   0.2292084E-03
  104   0.1785416E-03
  105  -0.5185263E-03
  106  -0.3593216E-02
  107   0.4021576E-04
  108  -0.4032832E-04
  109   0.0000000E+00
  110   0.7115552E-03
  111  -0.1389235E-03
  112   0.0000000E+00
  113   0.2223857E-03
  114   0.5445006E-04
  115  -0.5126286E-03
  116  -0.5805372E-03
  117   0.0000000E+00
  118   0.1007758E-03
  119  -0.5369768E-04
 Sym   = 1A
 Ene   =     -10.358858
 Spin  = ALPHA+BETA
 Occup =  2.0000
    1   0.3623736E-03
    2   0.8613825E-04
    3   0.4025616E-02
    4  -0.6630639E-03
    5   0.1424813E-03
    6  -0.3099596E-03
    7   0.3592415E-02
    8  -0.4686563E-03
    9  -0.7907452E-03
   10   0.5337909E-04
   11  -0.3200423E-04
   12  -0.9837368E-04
   13  -0.1061458E-03
   14  -0.5346692E-04
   15   0.3173637E-02
   16  -0.7543700E-02
   17   0.5324883E-02
   18  -0.1059680E-01
   19  -0.2941974E-02
   20   0.2803590E-02
   21   0.8518857E-03
   22  -0.1240565E-02
   23   0.2309346E-02
   24   0.9965079E-03
   25   0.8962925E-03
   26   0.1968257E-03
   27  -0.1620900E-02
   28  -0.8309126E-03
   29   0.3406511E-03
   30   0.9065979E-03
   31   0.3534837E-03
   32   0.5910382E-04
   33  -0.6700646E-04
   34  -0.3294152E-03
   35   0.1949778E-03
   36   0.3290468E-02
   37   0.2834087E-03
   38   0.5101164E-03
   39   0.4478259E-03
   40   0.3424977E-02
   41   0.2371502E-02
   42  -0.9410289E-04
   43   0.1393307E-04
   44  -0.1153805E-04
   45   0.5793942E-04
   46  -0.3058942E-04
   47   0.3290800E-04
   48   0.1001757E+01
   49   0.1565636E-01
   50  -0.1906417E-01
   51   0.2458603E-02
   52  -0.3153453E-02
   53   0.1282093E-02
   54   0.1620246E-01
   55   0.4954712E-02
   56  -0.3796175E-02
   57  -0.9542760E-03
   58   0.0000000E+00
   59  -0.1119900E-02
   60   0.2183846E-03
   61  -0.5183742E-03
   62  -0.4060682E-02
   63  -0.8934720E-02
   64  -0.9889906E-02
   65   0.3470355E-02
   66   0.1387252E-01
   67  -0.8261907E-02
   68  -0.9723862E-03
   69   0.1108718E-01
   70  -0.6767571E-02
   71   0.2143490E-03
   72   0.2006785E-03
   73   0.1297934E-02
   74   0.1026390E-02
   75  -0.2891358E-03
   76  -0.2398944E-02
   77  -0.3671009E-02
   78  -0.1155569E-01
   79   0.7499684E-02
   80  -0.6224445E-02
   81   0.2835357E-02
   82   0.4673680E-02
   83  -0.9720533E-02
   84   0.4856120E-02
   85   0.1137051E-02
   86  -0.5043451E-03
   87   0.1001484E-02
   88  -0.3196085E-03
   89   0.1548411E-02
   90  -0.2678937E-03
   91   0.8985199E-03
   92   0.9198528E-04
   93  -0.3406679E-04
   94   0.0000000E+00
   95  -0.1979020E-03
   96  -0.8346695E-03
   97   0.7762152E-04
   98   0.1083850E-03
   99   0.6817783E-04
  100   0.2779766E-04
  101   0.2209520E-03
  102  -0.4152100E-04
  103   0.4041834E-04
  104   0.1801597E-03
  105  -0.1809770E-04
  106   0.5046780E-03
  107  -0.1505520E-03
  108   0.6722264E-04
  109   0.1011002E-03
  110  -0.2725394E-03
  111   0.1557584E-04
  112   0.1847956E-04
  113  -0.7205317E-04
  114  -0.1886680E-04
  115   0.3558543E-02
  116   0.7648708E-04
  117  -0.1091207E-02
  118   0.1219656E-03
  119   0.9406811E-04
 Sym   = 1A
 Ene   =     -10.277704
 Spin  = ALPHA+BETA
 Occup =  2.0000
    1  -0.2281886E-02
    2  -0.5167070E-02
    3   0.6106019E-02
    4   0.4929471E-02
    5  -0.7365574E-02
    6   0.2731631E-04
    7  -0.6981681E-03
    8   0.2210821E-02
    9  -0.5093857E-03
   10   0.8564366E-03
   11   0.9213025E-04
   12   0.2089656E-03
   13   0.7807184E-03
   14   0.1422997E-02
   15   0.1000917E+01
   16   0.2148233E-01
   17  -0.7135188E-01
   18  -0.8267165E-04
   19   0.1538205E-02
   20  -0.7071565E-03
   21  -0.1534011E-02
   22   0.1742736E-02
   23   0.1039664E-01
   24   0.9236828E-03
   25  -0.8953921E-04
   26  -0.8640424E-03
   27  -0.5369185E-04
   28  -0.2869693E-04
   29  -0.1439291E-01
   30   0.6647879E-02
   31   0.0000000E+00
   32  -0.1448865E-02
   33   0.3233764E-02
   34   0.2638056E-02
   35  -0.7266964E-02
   36   0.2239350E-01
   37  -0.3542292E-02
   38  -0.6629003E-02
   39  -0.6334569E-02
   40   0.2039271E-02
   41   0.5915553E-02
   42   0.1759304E-02
   43  -0.4941445E-03
   44  -0.7876816E-03
   45  -0.1383200E-02
   46   0.3949408E-03
   47  -0.7166102E-03
   48   0.3295127E-02
   49  -0.8849894E-02
   50   0.1231553E-01
   51   0.8480548E-02
   52   0.2821135E-02
   53  -0.2942088E-02
   54  -0.7723258E-02
   55   0.2335856E-02
   56  -0.1286725E-02
   57   0.7340497E-03
   58   0.1132473E-02
   59   0.2691443E-03
   60  -0.1500906E-02
   61  -0.8498024E-03
   62   0.3400478E-03
   63   0.3128747E-03
   64   0.5046718E-03
   65  -0.1295543E-02
   66  -0.4671632E-03
   67   0.4777778E-03
   68  -0.2012840E-02
   69  -0.1171668E-02
   70   0.8278710E-03
   71  -0.1840075E-03
   72   0.2746778E-04
   73  -0.2116828E-03
   74   0.0000000E+00
   75  -0.4748337E-04
   76   0.5606055E-03
   77   0.4009407E-03
   78   0.6023257E-02
   79  -0.9927132E-03
   80   0.3377388E-03
   81   0.0000000E+00
   82  -0.3341229E-02
   83   0.8916833E-03
   84  -0.6053720E-04
   85  -0.3108282E-04
   86   0.1042517E-03
   87  -0.1037274E-03
   88  -0.1389095E-03
   89  -0.1140373E-03
   90   0.1478216E-02
   91   0.1487636E-02
   92   0.5050011E-03
   93  -0.7496102E-03
   94  -0.3799546E-04
   95   0.1685024E-02
   96   0.1323205E-02
   97   0.2208118E-03
   98  -0.3841686E-03
   99   0.7449640E-04
  100   0.1737363E-04
  101  -0.1500118E-02
  102   0.1185763E-03
  103   0.2644909E-03
  104   0.2285902E-03
  105   0.8611785E-03
  106   0.8042024E-03
  107  -0.2754004E-04
  108   0.4222136E-04
  109   0.2050848E-03
  110   0.5154092E-03
  111  -0.2172923E-03
  112   0.3036880E-04
  113  -0.1328300E-03
  114   0.1063550E-03
  115  -0.4430700E-03
  116  -0.2193313E-03
  117  -0.1112641E-03
  118  -0.5328327E-04
  119   0.8131206E-04
 Sym   = 1A
 Ene   =     -10.234321
 Spin  = ALPHA+BETA
 Occup =  2.0000
    1   0.1610718E-03
    2  -0.5615774E-03
    3   0.6066708E-02
    4   0.2656167E-03
    5   0.1065146E-02
    6   0.6819063E-03
    7  -0.9339563E-04
    8  -0.3764297E-02
    9  -0.2571058E-02
   10   0.3565789E-04
   11   0.2728822E-04
   12   0.8190214E-04
   13  -0.4546306E-04
   14   0.0000000E+00
   15   0.2426022E-02
   16  -0.4420108E-02
   17  -0.6211558E-02
   18   0.3434813E-02
   19   0.6245169E-02
   20   0.5898188E-02
   21  -0.7245830E-03
   22  -0.2449454E-02
   23   0.4053997E-02
   24  -0.1142210E-03
   25  -0.7724728E-03
   26  -0.1678596E-02
   27   0.6061157E-03
   28  -0.8639856E-03
   29   0.7458082E-03
   30   0.9145234E-03
   31  -0.1486459E-03
   32  -0.2111937E-03
   33  -0.1452035E-03
   34   0.1001005E+01
   35   0.2241052E-01
   36  -0.4926734E-01
   37  -0.1545309E-03
   38   0.1265005E-03
   39  -0.1156588E-03
   40  -0.1738073E-02
   41  -0.5930318E-03
   42  -0.2241649E-03
   43  -0.2266803E-03
   44  -0.4426671E-03
   45  -0.7188023E-03
   46   0.2273828E-03
   47  -0.4205391E-03
   48  -0.3228568E-03
   49   0.1831893E-03
   50   0.8264861E-02
   51  -0.7141256E-03
   52   0.1498436E-04
   53   0.5969957E-03
   54  -0.6197527E-02
   55  -0.1054059E-02
   56  -0.1308214E-02
   57  -0.1773959E-04
   58   0.4094453E-04
   59  -0.3765576E-04
   60   0.4657446E-04
   61   0.3405242E-04
   62   0.3138135E-04
   63   0.3284170E-03
   64  -0.1458012E-02
   65  -0.1516572E-03
   66  -0.3270772E-03
   67  -0.8238251E-03
   68   0.1138932E-02
   69   0.3690701E-04
   70  -0.2140469E-03
   71  -0.1297418E-04
   72   0.3552826E-04
   73  -0.3634164E-04
   74   0.0000000E+00
   75  -0.6337047E-04
   76   0.0000000E+00
   77  -0.6498242E-04
   78   0.5732646E-03
   79  -0.1157686E-03
   80  -0.4357759E-03
   81  -0.3946292E-03
   82   0.2595004E-03
   83   0.6081057E-03
   84  -0.2472095E-03
   85  -0.3789030E-04
   86  -0.1380374E-04
   87  -0.2170275E-04
   88  -0.2911123E-04
   89  -0.3542046E-04
   90  -0.2488229E-03
   91   0.9646013E-04
   92   0.5139720E-04
   93  -0.1258963E-03
   94  -0.3282000E-04
   95  -0.1647942E-03
   96  -0.1444499E-03
   97   0.1025812E-04
   98   0.4209820E-04
   99   0.7279965E-04
  100  -0.1306298E-01
  101   0.6484729E-02
  102   0.2275259E-03
  103   0.1798930E-02
  104  -0.3200378E-02
  105  -0.1340953E-01
  106   0.6434535E-02
  107   0.2350529E-02
  108  -0.2945597E-02
  109   0.2184013E-03
  110  -0.1367904E-01
  111   0.5565014E-02
  112  -0.3534137E-02
  113  -0.6476358E-03
  114   0.1181567E-02
  115  -0.5310844E-04
  116   0.3408988E-03
  117   0.0000000E+00
  118   0.3295518E-04
  119  -0.8278375E-04
 Sym   = 1A
 Ene   =      -1.122714
 Spin  = ALPHA+BETA
 Occup =  2.0000
    1  -0.3057873E-02
    2  -0.4006438E-02
    3  -0.4381448E-01
    4   0.6133993E-02
    5  -0.4327483E-02
    6   0.1162457E-02
    7  -0.1516390E-01
    8   0.1354514E-01
    9  -0.2337111E-02
   10   0.4945855E-04
   11  -0.1002067E-04
   12   0.9124959E-04
   13   0.1054791E-02
   14   0.1044177E-03
   15  -0.9602379E-02
   16   0.2307710E-01
   17   0.1321370E+00
   18   0.2761008E-01
   19   0.5756127E-02
   20  -0.4289418E-02
   21   0.3941460E-01
   22   0.2989051E-01
   23  -0.1336706E-01
   24   0.6190622E-03
   25  -0.3857003E-03
   26  -0.1196122E-03
   27  -0.5476900E-03
   28   0.9875843E-03
   29   0.5650803E-02
   30  -0.1341712E-01
   31  -0.1020696E-03
   32  -0.3806853E-03
   33  -0.3381230E-03
   34  -0.2711228E-03
   35  -0.1635407E-02
   36   0.9307189E-03
   37   0.2363773E-02
   38  -0.3053179E-02
   39  -0.1148844E-03
   40   0.5695302E-02
   41  -0.1350513E-01
   42  -0.4008274E-03
   43  -0.1714412E-03
   44   0.3095272E-03
   45  -0.2203084E-03
   46   0.2947283E-03
   47   0.4760521E-03
   48   0.1636834E-01
   49  -0.3980228E-01
   50  -0.6590459E-01
   51  -0.3143031E-01
   52   0.4846063E-01
   53  -0.1680981E-01
   54   0.5403931E-01
   55   0.5222524E-01
   56  -0.3454716E-01
   57  -0.3402447E-02
   58  -0.3341532E-02
   59   0.8303195E-02
   60   0.1901437E-01
   61   0.2550076E-02
   62  -0.5662678E-02
   63  -0.1106768E-01
   64  -0.4681803E-01
   65  -0.4394986E-02
   66   0.9884000E-02
   67  -0.8047856E-02
   68  -0.4534656E-02
   69   0.1304924E-01
   70  -0.9869541E-02
   71  -0.6292453E-03
   72  -0.1042856E-02
   73  -0.5387726E-03
   74   0.1056122E-02
   75   0.1323263E-02
   76   0.1117383E+00
   77   0.2833235E+00
   78   0.7609342E-01
   79   0.3998207E+00
   80   0.1544908E+00
   81  -0.1195830E+00
   82   0.1489190E+00
   83   0.7765290E-01
   84  -0.4867222E-01
   85  -0.2845685E-02
   86  -0.7434728E-02
   87  -0.5192482E-02
   88   0.8600601E-03
   89   0.1040224E-01
   90  -0.2897288E-03
   91  -0.2008735E-02
   92  -0.3034307E-03
   93   0.1603867E-03
   94  -0.1786412E-03
   95   0.6014276E-02
   96   0.7591863E-02
   97   0.8824618E-04
   98  -0.1405122E-03
   99  -0.1641132E-03
  100  -0.1786323E-02
  101  -0.1052430E-02
  102  -0.2046690E-03
  103  -0.6903768E-04
  104  -0.1918696E-03
  105  -0.2329520E-03
  106  -0.1551722E-01
  107  -0.5003997E-03
  108  -0.4881908E-03
  109  -0.3064018E-03
  110   0.1029489E-02
  111   0.6124255E-02
  112   0.4175815E-04
  113   0.1603814E-03
  114  -0.2166436E-03
  115   0.4172128E+00
  116   0.5548100E-01
  117  -0.4724334E-01
  118  -0.1186976E-01
  119   0.1354574E-01
