[Molden Format]
[Atoms] (Angs)
Si     1    14     -0.5099055306E-03    0.1081549267E-03   -0.2315267284E-02
O      2     8      0.8232820507E+00    0.9983332355E+00    0.1005431926E+01
O      3     8     -0.1009159542E+01   -0.9984429205E+00    0.8201749224E+00
O      4     8      0.1007812129E+01   -0.9982881066E+00   -0.8251675719E+00
O      5     8     -0.8245775448E+00    0.9987557645E+00   -0.1009534199E+01
C      6     6      0.1654506821E+01    0.4230395415E+00    0.2022334303E+01
C      7     6      0.2319126030E+01    0.1539459524E+01    0.2803103275E+01
C      8     6     -0.2028600527E+01   -0.4229534281E+00    0.1648181655E+01
C      9     6     -0.2838556919E+01   -0.1539134130E+01    0.2277210981E+01
C     10     6      0.2027704170E+01   -0.4230221588E+00   -0.1652729257E+01
C     11     6      0.2834743201E+01   -0.1539461342E+01   -0.2285056744E+01
C     12     6     -0.1656876270E+01    0.4231868126E+00   -0.2025391252E+01
C     13     6     -0.2330629229E+01    0.1538861832E+01   -0.2798882970E+01
H     14     1      0.2961728027E+01    0.1124025961E+01    0.3589600215E+01
H     15     1      0.1568046744E+01    0.2183266932E+01    0.3271640391E+01
H     16     1      0.2933997138E+01    0.2159400107E+01    0.2143081313E+01
H     17     1      0.2410136882E+01   -0.2331924872E+00    0.1558861900E+01
H     18     1      0.1044161647E+01   -0.2099678179E+00    0.2688102570E+01
H     19     1     -0.1565025979E+01    0.2089081885E+00    0.2424242741E+01
H     20     1     -0.2674047937E+01    0.2344441368E+00    0.1041834458E+01
H     21     1     -0.2198654173E+01   -0.2183919724E+01    0.2887823076E+01
H     22     1     -0.3626948841E+01   -0.1123559309E+01    0.2917396060E+01
H     23     1     -0.3307276459E+01   -0.2158133493E+01    0.1505699407E+01
H     24     1      0.3302938987E+01   -0.2161196155E+01   -0.1515466785E+01
H     25     1      0.3623367473E+01   -0.1124034089E+01   -0.2925050390E+01
H     26     1      0.2192870162E+01   -0.2181481978E+01   -0.2896561067E+01
H     27     1      0.2675123860E+01    0.2315287510E+00   -0.1045429974E+01
H     28     1      0.1564864887E+01    0.2116607592E+00   -0.2426986270E+01
H     29     1     -0.1045327540E+01   -0.2035711846E+00   -0.2695976307E+01
H     30     1     -0.2406957356E+01   -0.2391179451E+00   -0.1562006482E+01
H     31     1     -0.2946135793E+01    0.2152578071E+01   -0.2133984865E+01
H     32     1     -0.1585040951E+01    0.2188724455E+01   -0.3267606084E+01
H     33     1     -0.2974085242E+01    0.1123194044E+01   -0.3584573707E+01
[5D]
[7F]
[GTO]
   1
s       6
    16120.00000000        1.99745085
     2426.00000000        3.67828853
      553.90000000        5.92817435
      156.30000000        7.75351685
       50.07000000        6.51850466
       17.02000000        1.94097935
sp       5
      292.70000000       -0.22665698        9.30437804
       69.87000000       -0.99393727       11.42836783
       22.34000000       -1.36100991       11.32904243
        8.15000000        0.51976794        7.83823647
        3.13500000        1.63623825        3.24784190
sp       1
        1.22000000        0.82733227        1.82763672
sp       1
        0.55000000        0.45517889        0.67513939
sp       1
        0.27000000        0.26695184        0.27742449
d       1
        0.50000000        0.84755442

   2
s       6
     8588.50000000        1.20501289
     1297.23000000        2.21620477
      299.29600000        3.62745250
       87.37710000        4.88845231
       25.67890000        4.83572052
        3.74004000        0.53822949
sp       2
       42.11750000        1.33869227       21.60037053
        9.62837000        3.57838541       22.17808640
sp       1
        2.85332000       -1.56467071        5.28601253
sp       1
        0.89820000        0.65756680        1.24639702
sp       1
        0.27200000        0.26843353        0.27999561
d       1
        1.25000000        4.21272011

   3
s       6
     8588.50000000        1.20501289
     1297.23000000        2.21620477
      299.29600000        3.62745250
       87.37710000        4.88845231
       25.67890000        4.83572052
        3.74004000        0.53822949
sp       2
       42.11750000        1.33869227       21.60037053
        9.62837000        3.57838541       22.17808640
sp       1
        2.85332000       -1.56467071        5.28601253
sp       1
        0.89820000        0.65756680        1.24639702
sp       1
        0.27200000        0.26843353        0.27999561
d       1
        1.25000000        4.21272011

   4
s       6
     8588.50000000        1.20501289
     1297.23000000        2.21620477
      299.29600000        3.62745250
       87.37710000        4.88845231
       25.67890000        4.83572052
        3.74004000        0.53822949
sp       2
       42.11750000        1.33869227       21.60037053
        9.62837000        3.57838541       22.17808640
sp       1
        2.85332000       -1.56467071        5.28601253
sp       1
        0.89820000        0.65756680        1.24639702
sp       1
        0.27200000        0.26843353        0.27999561
d       1
        1.25000000        4.21272011

   5
s       6
     8588.50000000        1.20501289
     1297.23000000        2.21620477
      299.29600000        3.62745250
       87.37710000        4.88845231
       25.67890000        4.83572052
        3.74004000        0.53822949
sp       2
       42.11750000        1.33869227       21.60037053
        9.62837000        3.57838541       22.17808640
sp       1
        2.85332000       -1.56467071        5.28601253
sp       1
        0.89820000        0.65756680        1.24639702
sp       1
        0.27200000        0.26843353        0.27999561
d       1
        1.25000000        4.21272011

   6
s       6
     3048.00000000        0.53384197
      456.40000000        0.98945321
      103.70000000        1.59246777
       29.23000000        2.06421439
        9.34900000        1.78518891
        3.18900000        0.61703370
sp       2
        3.66500000       -0.74727241        1.70947363
        0.77050000        0.71260853        0.88553541
sp       1
        0.26000000        0.25950164        0.26464078
d       1
        0.80000000        1.92920137

   7
s       6
     3048.00000000        0.53384197
      456.40000000        0.98945321
      103.70000000        1.59246777
       29.23000000        2.06421439
        9.34900000        1.78518891
        3.18900000        0.61703370
sp       2
        3.66500000       -0.74727241        1.70947363
        0.77050000        0.71260853        0.88553541
sp       1
        0.26000000        0.25950164        0.26464078
d       1
        0.80000000        1.92920137

   8
s       6
     3048.00000000        0.53384197
      456.40000000        0.98945321
      103.70000000        1.59246777
       29.23000000        2.06421439
        9.34900000        1.78518891
        3.18900000        0.61703370
sp       2
        3.66500000       -0.74727241        1.70947363
        0.77050000        0.71260853        0.88553541
sp       1
        0.26000000        0.25950164        0.26464078
d       1
        0.80000000        1.92920137

   9
s       6
     3048.00000000        0.53384197
      456.40000000        0.98945321
      103.70000000        1.59246777
       29.23000000        2.06421439
        9.34900000        1.78518891
        3.18900000        0.61703370
sp       2
        3.66500000       -0.74727241        1.70947363
        0.77050000        0.71260853        0.88553541
sp       1
        0.26000000        0.25950164        0.26464078
d       1
        0.80000000        1.92920137

  10
s       6
     3048.00000000        0.53384197
      456.40000000        0.98945321
      103.70000000        1.59246777
       29.23000000        2.06421439
        9.34900000        1.78518891
        3.18900000        0.61703370
sp       2
        3.66500000       -0.74727241        1.70947363
        0.77050000        0.71260853        0.88553541
sp       1
        0.26000000        0.25950164        0.26464078
d       1
        0.80000000        1.92920137

  11
s       6
     3048.00000000        0.53384197
      456.40000000        0.98945321
      103.70000000        1.59246777
       29.23000000        2.06421439
        9.34900000        1.78518891
        3.18900000        0.61703370
sp       2
        3.66500000       -0.74727241        1.70947363
        0.77050000        0.71260853        0.88553541
sp       1
        0.26000000        0.25950164        0.26464078
d       1
        0.80000000        1.92920137

  12
s       6
     3048.00000000        0.53384197
      456.40000000        0.98945321
      103.70000000        1.59246777
       29.23000000        2.06421439
        9.34900000        1.78518891
        3.18900000        0.61703370
sp       2
        3.66500000       -0.74727241        1.70947363
        0.77050000        0.71260853        0.88553541
sp       1
        0.26000000        0.25950164        0.26464078
d       1
        0.80000000        1.92920137

  13
s       6
     3048.00000000        0.53384197
      456.40000000        0.98945321
      103.70000000        1.59246777
       29.23000000        2.06421439
        9.34900000        1.78518891
        3.18900000        0.61703370
sp       2
        3.66500000       -0.74727241        1.70947363
        0.77050000        0.71260853        0.88553541
sp       1
        0.26000000        0.25950164        0.26464078
d       1
        0.80000000        1.92920137

  14
s       3
       34.06134100        0.25562992
        5.12357460        0.46135996
        1.16466260        0.68112149
s       1
        0.41574551        0.36900374
s       1
        0.17951110        0.19655250
p       1
        0.80000000        1.07845635

  15
s       3
       34.06134100        0.25562992
        5.12357460        0.46135996
        1.16466260        0.68112149
s       1
        0.41574551        0.36900374
s       1
        0.17951110        0.19655250
p       1
        0.80000000        1.07845635

  16
s       3
       34.06134100        0.25562992
        5.12357460        0.46135996
        1.16466260        0.68112149
s       1
        0.41574551        0.36900374
s       1
        0.17951110        0.19655250
p       1
        0.80000000        1.07845635

  17
s       3
       34.06134100        0.25562992
        5.12357460        0.46135996
        1.16466260        0.68112149
s       1
        0.41574551        0.36900374
s       1
        0.17951110        0.19655250
p       1
        0.80000000        1.07845635

  18
s       3
       34.06134100        0.25562992
        5.12357460        0.46135996
        1.16466260        0.68112149
s       1
        0.41574551        0.36900374
s       1
        0.17951110        0.19655250
p       1
        0.80000000        1.07845635

  19
s       3
       34.06134100        0.25562992
        5.12357460        0.46135996
        1.16466260        0.68112149
s       1
        0.41574551        0.36900374
s       1
        0.17951110        0.19655250
p       1
        0.80000000        1.07845635

  20
s       3
       34.06134100        0.25562992
        5.12357460        0.46135996
        1.16466260        0.68112149
s       1
        0.41574551        0.36900374
s       1
        0.17951110        0.19655250
p       1
        0.80000000        1.07845635

  21
s       3
       34.06134100        0.25562992
        5.12357460        0.46135996
        1.16466260        0.68112149
s       1
        0.41574551        0.36900374
s       1
        0.17951110        0.19655250
p       1
        0.80000000        1.07845635

  22
s       3
       34.06134100        0.25562992
        5.12357460        0.46135996
        1.16466260        0.68112149
s       1
        0.41574551        0.36900374
s       1
        0.17951110        0.19655250
p       1
        0.80000000        1.07845635

  23
s       3
       34.06134100        0.25562992
        5.12357460        0.46135996
        1.16466260        0.68112149
s       1
        0.41574551        0.36900374
s       1
        0.17951110        0.19655250
p       1
        0.80000000        1.07845635

  24
s       3
       34.06134100        0.25562992
        5.12357460        0.46135996
        1.16466260        0.68112149
s       1
        0.41574551        0.36900374
s       1
        0.17951110        0.19655250
p       1
        0.80000000        1.07845635

  25
s       3
       34.06134100        0.25562992
        5.12357460        0.46135996
        1.16466260        0.68112149
s       1
        0.41574551        0.36900374
s       1
        0.17951110        0.19655250
p       1
        0.80000000        1.07845635

  26
s       3
       34.06134100        0.25562992
        5.12357460        0.46135996
        1.16466260        0.68112149
s       1
        0.41574551        0.36900374
s       1
        0.17951110        0.19655250
p       1
        0.80000000        1.07845635

  27
s       3
       34.06134100        0.25562992
        5.12357460        0.46135996
        1.16466260        0.68112149
s       1
        0.41574551        0.36900374
s       1
        0.17951110        0.19655250
p       1
        0.80000000        1.07845635

  28
s       3
       34.06134100        0.25562992
        5.12357460        0.46135996
        1.16466260        0.68112149
s       1
        0.41574551        0.36900374
s       1
        0.17951110        0.19655250
p       1
        0.80000000        1.07845635

  29
s       3
       34.06134100        0.25562992
        5.12357460        0.46135996
        1.16466260        0.68112149
s       1
        0.41574551        0.36900374
s       1
        0.17951110        0.19655250
p       1
        0.80000000        1.07845635

  30
s       3
       34.06134100        0.25562992
        5.12357460        0.46135996
        1.16466260        0.68112149
s       1
        0.41574551        0.36900374
s       1
        0.17951110        0.19655250
p       1
        0.80000000        1.07845635

  31
s       3
       34.06134100        0.25562992
        5.12357460        0.46135996
        1.16466260        0.68112149
s       1
        0.41574551        0.36900374
s       1
        0.17951110        0.19655250
p       1
        0.80000000        1.07845635

  32
s       3
       34.06134100        0.25562992
        5.12357460        0.46135996
        1.16466260        0.68112149
s       1
        0.41574551        0.36900374
s       1
        0.17951110        0.19655250
p       1
        0.80000000        1.07845635

  33
s       3
       34.06134100        0.25562992
        5.12357460        0.46135996
        1.16466260        0.68112149
s       1
        0.41574551        0.36900374
s       1
        0.17951110        0.19655250
p       1
        0.80000000        1.07845635

[MO]
 Sym   = 1A
 Ene   =     -65.870012
 Spin  = ALPHA
 Occup =  1.0000
    1   0.9970657E+00
    2   0.1654999E-01
    3   0.0000000E+00
    4   0.0000000E+00
    5   0.0000000E+00
    6  -0.9532878E-02
    7   0.0000000E+00
    8   0.0000000E+00
    9   0.0000000E+00
   10   0.7025252E-02
   11   0.0000000E+00
   12   0.0000000E+00
   13   0.0000000E+00
   14  -0.3600429E-02
   15   0.0000000E+00
   16   0.0000000E+00
   17   0.0000000E+00
   18   0.0000000E+00
   19   0.0000000E+00
   20   0.0000000E+00
   21   0.1408198E-04
   22   0.0000000E+00
   23   0.1033283E-04
   24  -0.3127774E-04
   25   0.0000000E+00
   26   0.0000000E+00
   27   0.0000000E+00
   28  -0.7489898E-04
   29  -0.2808689E-04
   30  -0.3389090E-04
   31  -0.3432963E-04
   32  -0.1316682E-03
   33   0.4822289E-04
   34   0.5819622E-04
   35   0.5895793E-04
   36   0.2885051E-03
   37  -0.1371077E-03
   38  -0.1318806E-03
   39  -0.1682843E-03
   40   0.0000000E+00
   41  -0.1395629E-04
   42  -0.1528242E-04
   43   0.0000000E+00
   44  -0.1259883E-04
   45   0.1032940E-04
   46  -0.3126639E-04
   47   0.0000000E+00
   48   0.0000000E+00
   49   0.0000000E+00
   50  -0.7486821E-04
   51   0.3438482E-04
   52   0.3389413E-04
   53  -0.2799456E-04
   54  -0.1316233E-03
   55  -0.5902791E-04
   56  -0.5818618E-04
   57   0.4807085E-04
   58   0.2884629E-03
   59   0.1679647E-03
   60   0.1318903E-03
   61  -0.1373996E-03
   62   0.0000000E+00
   63   0.1397325E-04
   64   0.1243283E-04
   65   0.0000000E+00
   66  -0.1539289E-04
   67   0.1033284E-04
   68  -0.3127832E-04
   69   0.0000000E+00
   70   0.0000000E+00
   71   0.0000000E+00
   72  -0.7490149E-04
   73  -0.3436735E-04
   74   0.3389963E-04
   75   0.2802853E-04
   76  -0.1316665E-03
   77   0.5900682E-04
   78  -0.5820947E-04
   79  -0.4814373E-04
   80   0.2884781E-03
   81  -0.1679731E-03
   82   0.1318870E-03
   83   0.1374802E-03
   84   0.0000000E+00
   85   0.1399542E-04
   86  -0.1246324E-04
   87   0.0000000E+00
   88   0.1539386E-04
   89   0.1033235E-04
   90  -0.3127160E-04
   91   0.0000000E+00
   92   0.0000000E+00
   93   0.0000000E+00
   94  -0.7488189E-04
   95   0.2812675E-04
   96  -0.3389353E-04
   97   0.3427346E-04
   98  -0.1316372E-03
   99  -0.4829115E-04
  100   0.5818616E-04
  101  -0.5884226E-04
  102   0.2884321E-03
  103   0.1371263E-03
  104  -0.1318685E-03
  105   0.1681800E-03
  106   0.0000000E+00
  107  -0.1393873E-04
  108   0.1524851E-04
  109   0.0000000E+00
  110   0.1262018E-04
  111   0.0000000E+00
  112  -0.2080517E-04
  113   0.1821064E-04
  114   0.0000000E+00
  115   0.2221432E-04
  116   0.4484186E-04
  117  -0.5394653E-04
  118  -0.8200007E-04
  119  -0.6145823E-04
  120   0.0000000E+00
  121  -0.1833012E-04
  122  -0.1051534E-04
  123   0.0000000E+00
  124   0.0000000E+00
  125   0.0000000E+00
  126  -0.3678249E-04
  127   0.0000000E+00
  128   0.0000000E+00
  129   0.0000000E+00
  130   0.1142643E-03
  131  -0.5515480E-04
  132   0.0000000E+00
  133  -0.6673892E-04
  134   0.0000000E+00
  135   0.0000000E+00
  136   0.0000000E+00
  137   0.0000000E+00
  138   0.0000000E+00
  139   0.0000000E+00
  140  -0.2083385E-04
  141  -0.2232700E-04
  142   0.0000000E+00
  143   0.1808430E-04
  144   0.4487443E-04
  145   0.6547907E-04
  146   0.8211462E-04
  147  -0.4913095E-04
  148   0.0000000E+00
  149   0.1815111E-04
  150   0.0000000E+00
  151   0.0000000E+00
  152  -0.1062688E-04
  153   0.0000000E+00
  154  -0.3681076E-04
  155   0.0000000E+00
  156   0.0000000E+00
  157   0.0000000E+00
  158   0.1143747E-03
  159   0.6757463E-04
  160   0.0000000E+00
  161  -0.5419311E-04
  162   0.0000000E+00
  163   0.0000000E+00
  164   0.0000000E+00
  165   0.0000000E+00
  166   0.0000000E+00
  167   0.0000000E+00
  168  -0.2081722E-04
  169   0.2232157E-04
  170   0.0000000E+00
  171  -0.1810013E-04
  172   0.4483175E-04
  173  -0.6522610E-04
  174   0.8202513E-04
  175   0.4943613E-04
  176   0.0000000E+00
  177   0.1815362E-04
  178   0.0000000E+00
  179   0.0000000E+00
  180   0.1059013E-04
  181   0.0000000E+00
  182  -0.3679063E-04
  183   0.0000000E+00
  184   0.0000000E+00
  185   0.0000000E+00
  186   0.1143041E-03
  187  -0.6742026E-04
  188   0.0000000E+00
  189   0.5432417E-04
  190   0.0000000E+00
  191   0.0000000E+00
  192   0.0000000E+00
  193   0.0000000E+00
  194   0.0000000E+00
  195   0.0000000E+00
  196  -0.2084107E-04
  197  -0.1829853E-04
  198   0.0000000E+00
  199  -0.2217298E-04
  200   0.4484116E-04
  201   0.5493955E-04
  202  -0.8211279E-04
  203   0.6085414E-04
  204   0.0000000E+00
  205  -0.1836048E-04
  206   0.1036780E-04
  207   0.0000000E+00
  208   0.0000000E+00
  209   0.0000000E+00
  210  -0.3681142E-04
  211   0.0000000E+00
  212   0.0000000E+00
  213   0.0000000E+00
  214   0.1144588E-03
  215   0.5564512E-04
  216   0.0000000E+00
  217   0.6639432E-04
  218   0.0000000E+00
  219   0.0000000E+00
  220   0.0000000E+00
  221   0.0000000E+00
  222   0.0000000E+00
  223   0.0000000E+00
  224   0.1897682E-04
  225   0.0000000E+00
  226   0.0000000E+00
  227   0.0000000E+00
  228   0.0000000E+00
  229   0.0000000E+00
  230  -0.4832877E-04
  231   0.1653481E-04
  232   0.0000000E+00
  233   0.0000000E+00
  234   0.1278508E-04
  235   0.0000000E+00
  236  -0.4738182E-04
  237   0.1548489E-04
  238   0.1327098E-04
  239   0.0000000E+00
  240   0.0000000E+00
  241   0.1461896E-04
  242  -0.7317839E-04
  243   0.2041224E-04
  244   0.2407502E-04
  245   0.0000000E+00
  246   0.0000000E+00
  247   0.1554094E-04
  248  -0.7560818E-04
  249   0.2009231E-04
  250   0.0000000E+00
  251   0.0000000E+00
  252   0.2413946E-04
  253   0.1556853E-04
  254  -0.7567152E-04
  255   0.1999110E-04
  256   0.0000000E+00
  257   0.0000000E+00
  258   0.2483877E-04
  259   0.1455846E-04
  260  -0.7306439E-04
  261   0.2035469E-04
  262  -0.2337825E-04
  263   0.0000000E+00
  264   0.0000000E+00
  265   0.0000000E+00
  266  -0.4844524E-04
  267   0.1664822E-04
  268   0.0000000E+00
  269   0.0000000E+00
  270   0.1312196E-04
  271   0.0000000E+00
  272   0.1894757E-04
  273   0.0000000E+00
  274   0.0000000E+00
  275   0.0000000E+00
  276   0.0000000E+00
  277   0.0000000E+00
  278  -0.4727758E-04
  279   0.1536918E-04
  280  -0.1288452E-04
  281   0.0000000E+00
  282   0.0000000E+00
  283   0.0000000E+00
  284  -0.4743363E-04
  285   0.1549240E-04
  286   0.1287247E-04
  287   0.0000000E+00
  288   0.0000000E+00
  289   0.0000000E+00
  290   0.1897549E-04
  291   0.0000000E+00
  292   0.0000000E+00
  293   0.0000000E+00
  294   0.0000000E+00
  295   0.0000000E+00
  296  -0.4828699E-04
  297   0.1653958E-04
  298   0.0000000E+00
  299   0.0000000E+00
  300  -0.1313111E-04
  301   0.1459241E-04
  302  -0.7304750E-04
  303   0.2026793E-04
  304   0.2341455E-04
  305   0.0000000E+00
  306   0.0000000E+00
  307   0.1557752E-04
  308  -0.7579627E-04
  309   0.2030766E-04
  310   0.0000000E+00
  311   0.0000000E+00
  312  -0.2478057E-04
  313   0.1557343E-04
  314  -0.7549781E-04
  315   0.1958187E-04
  316   0.0000000E+00
  317   0.0000000E+00
  318  -0.2428732E-04
  319   0.1454891E-04
  320  -0.7327689E-04
  321   0.2083216E-04
  322  -0.2397959E-04
  323   0.0000000E+00
  324   0.0000000E+00
  325   0.0000000E+00
  326  -0.4700797E-04
  327   0.1516752E-04
  328  -0.1330627E-04
  329   0.0000000E+00
  330   0.0000000E+00
  331   0.0000000E+00
  332  -0.4875608E-04
  333   0.1686268E-04
  334   0.0000000E+00
  335   0.0000000E+00
  336  -0.1276493E-04
  337   0.0000000E+00
  338   0.1893328E-04
  339   0.0000000E+00
  340   0.0000000E+00
  341   0.0000000E+00
  342   0.0000000E+00
 Sym   = 1A
 Ene   =     -18.941374
 Spin  = ALPHA
 Occup =  1.0000
    1   0.0000000E+00
    2   0.5427535E-04
    3  -0.1396378E-04
    4  -0.1421783E-04
    5   0.1132786E-04
    6  -0.2399995E-03
    7   0.7468839E-04
    8   0.7095683E-04
    9  -0.6052557E-04
   10   0.6431354E-03
   11  -0.1756783E-03
   12  -0.1403621E-03
   13   0.1422733E-03
   14  -0.8343946E-03
   15   0.3570917E-03
   16   0.2724365E-03
   17  -0.2900660E-03
   18   0.0000000E+00
   19   0.5896016E-04
   20   0.3610718E-04
   21  -0.3488367E-04
   22  -0.4432391E-04
   23  -0.8836850E-03
   24  -0.7422621E-03
   25   0.0000000E+00
   26   0.0000000E+00
   27   0.0000000E+00
   28   0.1956919E-04
   29   0.0000000E+00
   30   0.0000000E+00
   31   0.0000000E+00
   32   0.0000000E+00
   33   0.0000000E+00
   34  -0.1631871E-04
   35   0.0000000E+00
   36   0.3785677E-04
   37  -0.3421008E-04
   38  -0.1162208E-04
   39   0.3537272E-04
   40   0.0000000E+00
   41   0.0000000E+00
   42   0.0000000E+00
   43   0.0000000E+00
   44   0.0000000E+00
   45   0.5523050E+00
   46   0.4643504E+00
   47  -0.1473224E-03
   48   0.6421555E-03
   49   0.1184056E-03
   50  -0.1178551E-01
   51  -0.7486637E-04
   52   0.4538103E-03
   53   0.5970472E-04
   54   0.3680148E-04
   55   0.2872297E-04
   56  -0.1415587E-03
   57  -0.2250232E-04
   58   0.1649076E-02
   59  -0.5328864E-04
   60   0.5055074E-03
   61   0.4123448E-04
   62  -0.1831467E-04
   63  -0.1098418E-03
   64  -0.1283450E-04
   65   0.1395386E-04
   66   0.1545770E-04
   67   0.5152844E-02
   68   0.4327904E-02
   69   0.0000000E+00
   70   0.0000000E+00
   71   0.0000000E+00
   72  -0.1222719E-03
   73   0.0000000E+00
   74   0.0000000E+00
   75   0.0000000E+00
   76  -0.3998974E-04
   77   0.0000000E+00
   78   0.0000000E+00
   79   0.0000000E+00
   80   0.1117716E-03
   81   0.0000000E+00
   82   0.2956270E-04
   83   0.0000000E+00
   84   0.0000000E+00
   85  -0.1031206E-04
   86   0.0000000E+00
   87   0.0000000E+00
   88   0.0000000E+00
   89  -0.5047314E-03
   90  -0.4235465E-03
   91   0.0000000E+00
   92   0.0000000E+00
   93   0.0000000E+00
   94   0.1176946E-04
   95   0.0000000E+00
   96   0.0000000E+00
   97   0.0000000E+00
   98   0.0000000E+00
   99   0.0000000E+00
  100  -0.1647095E-04
  101   0.0000000E+00
  102   0.3837510E-04
  103  -0.4104152E-04
  104  -0.1151552E-04
  105   0.2621838E-04
  106   0.0000000E+00
  107   0.0000000E+00
  108   0.0000000E+00
  109   0.0000000E+00
  110   0.0000000E+00
  111   0.0000000E+00
  112  -0.1068129E-04
  113   0.0000000E+00
  114   0.0000000E+00
  115   0.0000000E+00
  116   0.2461726E-04
  117   0.3304156E-04
  118  -0.2358838E-04
  119  -0.1828231E-04
  120   0.0000000E+00
  121   0.0000000E+00
  122   0.0000000E+00
  123   0.0000000E+00
  124   0.0000000E+00
  125   0.0000000E+00
  126   0.0000000E+00
  127   0.0000000E+00
  128   0.0000000E+00
  129   0.0000000E+00
  130   0.0000000E+00
  131  -0.2973285E-04
  132   0.0000000E+00
  133   0.1828694E-04
  134   0.0000000E+00
  135   0.0000000E+00
  136   0.0000000E+00
  137   0.0000000E+00
  138   0.0000000E+00
  139   0.3098860E-04
  140   0.1604707E-03
  141   0.1932084E-04
  142  -0.2109310E-04
  143  -0.1610513E-04
  144  -0.7048826E-03
  145  -0.2650154E-03
  146   0.0000000E+00
  147   0.2170238E-03
  148  -0.1487689E-04
  149  -0.3571144E-04
  150   0.1574445E-04
  151   0.0000000E+00
  152  -0.1793663E-04
  153   0.0000000E+00
  154  -0.1219765E-04
  155   0.0000000E+00
  156   0.0000000E+00
  157   0.0000000E+00
  158   0.5512575E-04
  159   0.0000000E+00
  160   0.0000000E+00
  161   0.0000000E+00
  162   0.0000000E+00
  163   0.0000000E+00
  164   0.0000000E+00
  165   0.1021390E-04
  166   0.0000000E+00
  167   0.0000000E+00
  168   0.2423600E-04
  169  -0.1433868E-04
  170   0.0000000E+00
  171   0.1164541E-04
  172  -0.6344350E-04
  173   0.6533490E-04
  174  -0.3773451E-04
  175  -0.5289446E-04
  176   0.0000000E+00
  177   0.0000000E+00
  178   0.0000000E+00
  179   0.0000000E+00
  180   0.0000000E+00
  181   0.0000000E+00
  182   0.0000000E+00
  183   0.0000000E+00
  184   0.0000000E+00
  185   0.0000000E+00
  186  -0.3827564E-04
  187   0.0000000E+00
  188  -0.2515238E-04
  189   0.0000000E+00
  190   0.0000000E+00
  191   0.0000000E+00
  192   0.0000000E+00
  193   0.0000000E+00
  194   0.0000000E+00
  195   0.0000000E+00
  196  -0.1146050E-04
  197   0.0000000E+00
  198   0.0000000E+00
  199   0.0000000E+00
  200   0.2780964E-04
  201   0.2436574E-04
  202  -0.2564389E-04
  203  -0.2825439E-04
  204   0.0000000E+00
  205   0.0000000E+00
  206   0.0000000E+00
  207   0.0000000E+00
  208   0.0000000E+00
  209   0.0000000E+00
  210   0.0000000E+00
  211   0.0000000E+00
  212   0.0000000E+00
  213   0.0000000E+00
  214   0.0000000E+00
  215  -0.2352957E-04
  216   0.0000000E+00
  217   0.2613083E-04
  218   0.0000000E+00
  219   0.0000000E+00
  220   0.0000000E+00
  221   0.0000000E+00
  222   0.0000000E+00
  223   0.0000000E+00
  224   0.0000000E+00
  225   0.0000000E+00
  226   0.0000000E+00
  227   0.0000000E+00
  228   0.0000000E+00
  229   0.0000000E+00
  230  -0.2380936E-04
  231   0.0000000E+00
  232   0.0000000E+00
  233   0.0000000E+00
  234   0.0000000E+00
  235   0.0000000E+00
  236   0.1772453E-04
  237   0.0000000E+00
  238   0.0000000E+00
  239   0.0000000E+00
  240   0.0000000E+00
  241   0.0000000E+00
  242  -0.4599729E-04
  243   0.2024576E-04
  244   0.0000000E+00
  245   0.0000000E+00
  246   0.0000000E+00
  247  -0.2111892E-04
  248   0.9166050E-04
  249  -0.9785616E-04
  250   0.0000000E+00
  251   0.0000000E+00
  252   0.0000000E+00
  253   0.0000000E+00
  254   0.1678182E-03
  255  -0.6089355E-04
  256   0.0000000E+00
  257  -0.1882173E-04
  258  -0.4846621E-04
  259   0.0000000E+00
  260   0.1687558E-03
  261  -0.5795565E-04
  262   0.4688458E-04
  263  -0.2087650E-04
  264   0.1331409E-04
  265   0.0000000E+00
  266   0.1385372E-04
  267  -0.1623705E-04
  268   0.0000000E+00
  269   0.0000000E+00
  270   0.0000000E+00
  271   0.1263110E-04
  272  -0.4067130E-04
  273   0.0000000E+00
  274  -0.1077671E-04
  275   0.0000000E+00
  276   0.0000000E+00
  277   0.0000000E+00
  278   0.1420837E-04
  279  -0.1712585E-04
  280   0.0000000E+00
  281   0.0000000E+00
  282   0.0000000E+00
  283   0.0000000E+00
  284   0.0000000E+00
  285   0.0000000E+00
  286   0.0000000E+00
  287   0.0000000E+00
  288   0.0000000E+00
  289   0.0000000E+00
  290   0.1302270E-04
  291   0.0000000E+00
  292   0.0000000E+00
  293   0.0000000E+00
  294   0.0000000E+00
  295   0.0000000E+00
  296   0.0000000E+00
  297   0.0000000E+00
  298   0.0000000E+00
  299   0.0000000E+00
  300   0.0000000E+00
  301   0.0000000E+00
  302   0.4342601E-04
  303  -0.1802505E-04
  304  -0.1320245E-04
  305   0.0000000E+00
  306   0.0000000E+00
  307   0.0000000E+00
  308   0.4298270E-04
  309  -0.1810766E-04
  310   0.0000000E+00
  311   0.0000000E+00
  312   0.1310067E-04
  313   0.0000000E+00
  314  -0.4860571E-04
  315   0.2142592E-04
  316   0.0000000E+00
  317   0.0000000E+00
  318   0.0000000E+00
  319  -0.2122896E-04
  320   0.9187598E-04
  321  -0.1020929E-03
  322   0.0000000E+00
  323   0.0000000E+00
  324   0.0000000E+00
  325   0.0000000E+00
  326  -0.2442566E-04
  327   0.0000000E+00
  328   0.0000000E+00
  329   0.0000000E+00
  330   0.0000000E+00
  331   0.0000000E+00
  332   0.1861209E-04
  333   0.0000000E+00
  334   0.0000000E+00
  335   0.0000000E+00
  336   0.0000000E+00
  337   0.0000000E+00